<VTKFile type="UnstructuredGrid" version="1.0" byte_order="LittleEndian" header_type="UInt64">
  <UnstructuredGrid>
    <Piece NumberOfPoints="11" NumberOfCells="10">
      <PointData Scalars="ic">
        <DataArray type="Float64" Name="ic" format="ascii" RangeMin="0" RangeMax="0.05">
          0 0 0 0 0 0
          0 0 0 0 0
        </DataArray>
      </PointData>
      <CellData>
        <DataArray type="Int32" Name="MaterialIDs" format="ascii" RangeMin="0" RangeMax="0">
          0 0 0 0 0 0
          0 0 0 0
        </DataArray>
      </CellData>
      <Points>
        <DataArray type="Float64" Name="Points" NumberOfComponents="3" format="ascii" RangeMin="0" RangeMax="1">
          0 0 0 0.1 0 0
          0.2 0 0 0.3 0 0
          0.4 0 0 0.5 0 0
          0.6 0 0 0.7 0 0
          0.8 0 0 0.9 0 0
          1 0 0
        </DataArray>
      </Points>
      <Cells>
        <DataArray type="Int64" Name="connectivity" format="ascii" RangeMin="0" RangeMax="10">
          0 1 1 2 2 3
          3 4 4 5 5 6
          6 7 7 8 8 9
          9 10
        </DataArray>
        <DataArray type="Int64" Name="offsets" format="ascii" RangeMin="2" RangeMax="20">
          2 4 6 8 10 12
          14 16 18 20
        </DataArray>
        <DataArray type="UInt8" Name="types" format="ascii" RangeMin="3" RangeMax="3">
          3 3 3 3 3 3
          3 3 3 3
        </DataArray>
        <DataArray type="Int64" Name="faces" format="ascii" RangeMin="0" RangeMax="0">
          0 0 0 0 0 0
          0 0 0 0
        </DataArray>
        <DataArray type="Int64" Name="faceoffsets" format="ascii" RangeMin="1" RangeMax="10">
          1 2 3 4 5 6
          7 8 9 10
        </DataArray>
      </Cells>
    </Piece>
  </UnstructuredGrid>
</VTKFile>
