<VTKFile type="UnstructuredGrid" version="1.0" byte_order="LittleEndian" header_type="UInt64">
  <UnstructuredGrid>
    <Piece NumberOfPoints="4" NumberOfCells="1">
      <PointData>
        <DataArray type="Float64" Name="ic" NumberOfComponents="2" format="ascii" RangeMin="0" RangeMax="0.064031242374">
          0 0 0 0 0 0 0 0
        </DataArray>
      </PointData>
      <CellData>
        <DataArray type="UInt32" Name="MaterialIDs" format="ascii" RangeMin="0" RangeMax="0">
          0
        </DataArray>
      </CellData>
      <Points>
        <DataArray type="Float64" Name="Points" NumberOfComponents="3" format="ascii" RangeMin="0" RangeMax="1.4142135624">
          0 0 0 1 0 0
          0 1 0 1 1 0
        </DataArray>
      </Points>
      <Cells>
        <DataArray type="Int64" Name="connectivity" format="ascii" RangeMin="0" RangeMax="3">
          0 1 3 2
        </DataArray>
        <DataArray type="Int64" Name="offsets" format="ascii" RangeMin="4" RangeMax="4">
          4
        </DataArray>
        <DataArray type="UInt8" Name="types" format="ascii" RangeMin="9" RangeMax="9">
          9
        </DataArray>
        <DataArray type="Int64" Name="faces" format="ascii" RangeMin="0" RangeMax="0">
          0
        </DataArray>
        <DataArray type="Int64" Name="faceoffsets" format="ascii" RangeMin="1" RangeMax="1">
          1
        </DataArray>
      </Cells>
    </Piece>
  </UnstructuredGrid>
</VTKFile>
